REMARK  Name = 
REMARK  4 active torsions:
REMARK  status: ('A' for Active; 'I' for Inactive)
REMARK    1  A    between atoms: C_1  and  N_2
REMARK    2  A    between atoms: C_13  and  C_14
REMARK    3  A    between atoms: C_17  and  O_18
REMARK    4  A    between atoms: O_18  and  C_19
REMARK                            x       y       z     vdW  Elec       q    Type
REMARK                         _______ _______ _______ _____ _____    ______ ____
ROOT
ATOM      1  C   UNL     1       0.941  -2.743  -3.438  0.00  0.00    +0.000 A 
ATOM      2  C   UNL     1       1.042  -3.777  -4.402  0.00  0.00    +0.000 A 
ATOM      3  C   UNL     1       0.615  -3.591  -5.708  0.00  0.00    +0.000 A 
ATOM      4  C   UNL     1      -0.040  -2.422  -6.018  0.00  0.00    +0.000 A 
ATOM      5  N   UNL     1      -0.407  -1.540  -5.057  0.00  0.00    +0.000 NA
ATOM      6  C   UNL     1       0.058  -1.728  -3.793  0.00  0.00    +0.000 A 
ENDROOT
BRANCH   1  19
ATOM      7  C   UNL     1       4.393   0.299  -2.103  0.00  0.00    +0.000 C 
ATOM      8  N   UNL     1       3.106  -0.526  -2.013  0.00  0.00    +0.000 N 
ATOM      9  C   UNL     1       3.354  -1.633  -3.265  0.00  0.00    +0.000 C 
ATOM     10  C   UNL     1       3.252  -3.470  -3.011  0.00  0.00    +0.000 C 
ATOM     11  O   UNL     1       3.892  -4.293  -3.662  0.00  0.00    +0.000 OA
ATOM     12  N   UNL     1       2.013  -3.948  -1.913  0.00  0.00    +0.000 N 
ATOM     13  C   UNL     1       1.967  -3.729  -0.314  0.00  0.00    +0.000 C 
ATOM     14  C   UNL     1       1.776  -1.910   0.218  0.00  0.00    +0.000 C 
ATOM     15  C   UNL     1       2.984  -1.037  -0.660  0.00  0.00    +0.000 C 
ATOM     16  N   UNL     1       4.006  -1.782  -0.461  0.00  0.00    +0.000 NA
ATOM     17  N   UNL     1       3.388  -2.825  -1.056  0.00  0.00    +0.000 N 
ATOM     18  C   UNL     1       3.365  -3.977  -0.128  0.00  0.00    +0.000 C 
ATOM     19  C   UNL     1       1.698  -2.679  -1.997  0.00  0.00    +0.000 C 
ENDBRANCH   1  19
BRANCH   4  20
ATOM     20  O   UNL     1      -0.323  -1.991  -7.284  0.00  0.00    +0.000 OA
BRANCH  20  21
ATOM     21  C   UNL     1      -0.325  -2.913  -8.395  0.00  0.00    +0.000 C 
ATOM     22  C   UNL     1      -1.373  -4.015  -8.216  0.00  0.00    +0.000 A 
ATOM     23  C   UNL     1      -2.549  -3.766  -7.489  0.00  0.00    +0.000 A 
ATOM     24  C   UNL     1      -3.461  -4.789  -7.236  0.00  0.00    +0.000 A 
ATOM     25  C   UNL     1      -3.239  -6.054  -7.739  0.00  0.00    +0.000 A 
ATOM     26  C   UNL     1      -2.085  -6.307  -8.526  0.00  0.00    +0.000 A 
ATOM     27  C   UNL     1      -1.159  -5.292  -8.765  0.00  0.00    +0.000 A 
ATOM     28  C   UNL     1       0.030  -5.568  -9.645  0.00  0.00    +0.000 C 
ATOM     29  C   UNL     1       1.228  -4.693  -9.361  0.00  0.00    +0.000 A 
ATOM     30  C   UNL     1       2.512  -5.162  -9.684  0.00  0.00    +0.000 A 
ATOM     31  C   UNL     1       3.636  -4.375  -9.443  0.00  0.00    +0.000 A 
ATOM     32  C   UNL     1       3.485  -3.094  -8.916  0.00  0.00    +0.000 A 
ATOM     33  C   UNL     1       2.210  -2.605  -8.616  0.00  0.00    +0.000 A 
ATOM     34  C   UNL     1       1.071  -3.403  -8.801  0.00  0.00    +0.000 A 
ENDBRANCH  20  21
ENDBRANCH   4  20
TORSDOF 3
