MODEL 1
REMARK minimizedAffinity -9.86608601
REMARK minimizedRMSD -1
REMARK  Name = 
REMARK  5 active torsions:
REMARK  status: ('A' for Active; 'I' for Inactive)
REMARK    1  A    between atoms: C_1  and  N_2
REMARK    2  A    between atoms: N_9  and  C_10
REMARK    3  A    between atoms: C_10  and  C_11
REMARK    4  A    between atoms: C_11  and  C_12
REMARK    5  A    between atoms: C_12  and  C_14
REMARK                            x       y       z     vdW  Elec       q    Type
REMARK                         _______ _______ _______ _____ _____    ______ ____
ROOT
ATOM      1  C   UNL     1      10.182  36.147  23.862  0.00  0.00    +0.000 C 
ATOM      2  N   UNL     1      10.665  36.746  22.612  0.00  0.00    +0.000 N 
ATOM      3  C   UNL     1      12.059  36.812  22.401  0.00  0.00    +0.000 C 
ATOM      4  C   UNL     1      12.947  37.818  22.322  0.00  0.00    +0.000 C 
ATOM      5  C   UNL     1      12.594  39.209  22.644  0.00  0.00    +0.000 C 
ATOM      6  O   UNL     1      13.322  40.131  22.285  0.00  0.00    +0.000 OA
ATOM      7  C   UNL     1      11.349  39.416  23.447  0.00  0.00    +0.000 C 
ATOM      8  C   UNL     1      10.013  39.078  22.645  0.00  0.00    +0.000 C 
ATOM      9  N   UNL     1       9.818  37.700  21.938  0.00  0.00    +0.000 NA
ENDROOT
BRANCH   9  10
ATOM     10  C   UNL     1       8.273  37.156  21.613  0.00  0.00    +0.000 C 
BRANCH  10  11
ATOM     11  C   UNL     1       6.900  37.099  22.789  0.00  0.00    +0.000 C 
BRANCH  11  12
ATOM     12  C   UNL     1       5.759  36.196  23.788  0.00  0.00    +0.000 C 
ATOM     13  O   UNL     1       6.087  35.554  24.803  0.00  0.00    +0.000 OA
BRANCH  12  14
ATOM     14  C   UNL     1       4.338  36.446  23.597  0.00  0.00    +0.000 C 
ATOM     15  C   UNL     1       3.290  36.616  24.602  0.00  0.00    +0.000 C 
ATOM     16  C   UNL     1       2.129  36.826  23.780  0.00  0.00    +0.000 C 
ATOM     17  C   UNL     1       3.131  36.795  22.945  0.00  0.00    +0.000 C 
ATOM     18  C   UNL     1       4.298  36.758  21.972  0.00  0.00    +0.000 C 
ENDBRANCH  12  14
ENDBRANCH  11  12
ENDBRANCH  10  11
ENDBRANCH   9  10
TORSDOF 4
ENDMDL
